ITEM: TIMESTEP
0
ITEM: NUMBER OF ATOMS
2001
ITEM: BOX BOUNDS pp pp pp
0.0000000000000000e+00 2.8553120000000000e+01
0.0000000000000000e+00 2.8553120000000000e+01
0.0000000000000000e+00 2.8553120000000000e+01
ITEM: ATOMS id type x y z c_eng v_hyst 
421 1 8.88739e-05 2.85492 5.70945 -4.01291 3061.17 
203 1 2.85511 0.00153358 2.85358 -4.01293 13850.3 
223 1 2.85587 2.85506 2.85464 -4.01299 7724.2 
2 1 1.42807 1.42799 1.42686 -4.01291 16010.3 
202 1 1.42766 1.42828 4.28163 -4.01295 3501.26 
22 1 1.42819 4.28187 1.42764 -4.01299 4789.06 
222 1 1.42775 4.28189 4.28202 -4.01293 2758.23 
4 1 4.28383 1.42795 1.42714 -4.01299 5674.8 
204 1 4.28324 1.42826 4.28189 -4.01304 2187.59 
24 1 4.28394 4.28213 1.4279 -4.01305 6731.22 
224 1 4.28342 4.28207 4.28237 -4.013 11848 
403 1 2.85456 0.00167663 5.709 -4.01301 2098.95 
423 1 2.85533 2.85488 5.70957 -4.013 4873.68 
221 1 0.000318774 2.855 2.85446 -4.01291 41616 
21 1 0.0004606 2.85449 0.000262542 -4.0129 8301.55 
23 1 2.85619 2.85459 0.00035558 -4.01299 4503.83 
205 1 5.71107 0.00124777 2.85405 -4.01302 10947.5 
225 1 5.71163 2.85519 2.85513 -4.01302 16927.5 
207 1 8.56671 0.000962779 2.8546 -4.01296 4315.92 
227 1 8.56701 2.85533 2.85563 -4.01298 7153.89 
6 1 7.13938 1.4279 1.42751 -4.01296 2816.73 
206 1 7.13906 1.42812 4.28257 -4.01304 5179.23 
26 1 7.1395 4.2825 1.42827 -4.01304 6496.98 
226 1 7.13924 4.2825 4.28308 -4.013 12373.3 
405 1 5.71027 0.00144512 5.70922 -4.01311 10436.3 
425 1 5.71114 2.85502 5.71012 -4.01306 1335.29 
407 1 8.56634 0.000899933 5.7101 -4.01307 3262.79 
27 1 8.56707 2.85491 0.000678011 -4.01297 7832.68 
25 1 5.71184 2.85475 0.000524028 -4.01299 6879.4 
209 1 11.4218 0.000829281 2.8549 -4.01293 7606.43 
29 1 11.4219 2.85499 0.000761834 -4.01296 2400.34 
229 1 11.4219 2.8554 2.85592 -4.01297 661.465 
8 1 9.99447 1.42788 1.42777 -4.01294 1468.9 
208 1 9.99437 1.42803 4.28314 -4.013 3204.84 
28 1 9.99455 4.28278 1.42855 -4.01303 13760.9 
228 1 9.99449 4.28284 4.28368 -4.01294 12625.2 
10 1 12.8492 1.42788 1.42786 -4.01293 1784.17 
210 1 12.8492 1.42801 4.28336 -4.01299 1763.53 
30 1 12.8492 4.28287 1.42864 -4.01302 4713.39 
230 1 12.8492 4.28296 4.28389 -4.01293 2628.75 
241 1 0.00023269 5.7091 2.85487 -4.01298 4097.32 
243 1 2.85563 5.70921 2.85498 -4.01307 1528.32 
263 1 2.85467 8.56361 2.85443 -4.01284 10672.3 
42 1 1.42775 7.13625 1.42766 -4.01293 2003.53 
242 1 1.42731 7.13638 4.28215 -4.01301 2899.75 
44 1 4.28342 7.1366 1.42784 -4.013 3006.59 
244 1 4.28268 7.13654 4.28231 -4.01321 5696.26 
41 1 0.000318762 5.70869 0.000768149 -4.01291 3602.65 
443 1 2.85467 5.70866 5.70938 -4.01284 10254.1 
463 1 2.85381 8.56364 5.70941 -4.01306 8700.76 
61 1 8.88687e-05 8.56368 0.000691041 -4.01291 3446.35 
63 1 2.85533 8.5638 0.000647902 -4.013 6107.02 
43 1 2.85587 5.70887 0.000830045 -4.01299 4536.42 
245 1 5.71148 5.70973 2.8555 -4.01313 2899.71 
265 1 5.71062 8.56412 2.85487 -4.01295 1222.87 
47 1 8.56701 5.70986 0.00109557 -4.01298 4017.04 
247 1 8.56702 5.71034 2.85611 -4.0131 22174.4 
67 1 8.5668 8.56516 0.000986239 -4.01302 4423.17 
267 1 8.56672 8.56516 2.85577 -4.01291 4953.11 
46 1 7.13924 7.13731 1.42827 -4.013 8150.91 
246 1 7.13885 7.13745 4.28322 -4.01328 6374.9 
445 1 5.71062 5.7091 5.70989 -4.01295 4413.2 
465 1 5.70937 8.56395 5.70972 -4.01362 783.917 
65 1 5.71114 8.56435 0.000794238 -4.01306 5868.85 
45 1 5.71163 5.70936 0.00095692 -4.01302 3992.57 
49 1 11.4219 5.71015 0.00117412 -4.01297 5617.83 
249 1 11.4219 5.71068 2.85645 -4.01307 7965.04 
69 1 11.4219 8.56568 0.00108979 -4.01298 18119.3 
269 1 11.4219 8.56582 2.85628 -4.0128 7060.22 
48 1 9.99449 7.13791 1.42861 -4.01294 6848.8 
248 1 9.99447 7.13837 4.28414 -4.01319 8339.02 
50 1 12.8492 7.13812 1.42873 -4.01293 5974.04 
250 1 12.8492 7.13869 4.28446 -4.01317 5141.04 
251 1 14.2766 5.71068 2.85645 -4.01307 11673.1 
303 1 2.85303 14.2749 2.85289 -4.01276 1790.49 
483 1 2.85256 11.4186 5.70853 -4.01294 5148.86 
283 1 2.85372 11.4188 2.85363 -4.01282 15558 
62 1 1.42722 9.99138 1.42724 -4.01291 3646.42 
262 1 1.42655 9.9913 4.28171 -4.01295 7848.57 
82 1 1.4268 12.8472 1.4267 -4.01289 10813.8 
282 1 1.42602 12.847 4.28118 -4.013 23692.1 
64 1 4.28261 9.99151 1.42724 -4.01301 16011.8 
264 1 4.28082 9.99051 4.2809 -4.01254 4024.41 
84 1 4.28194 12.8471 1.42662 -4.01303 18421.3 
284 1 4.27929 12.8459 4.27955 -4.01256 2639.09 
503 1 2.85189 14.2748 5.70776 -4.01307 5085.27 
83 1 2.85489 11.4194 0.000192423 -4.01301 3049.77 
307 1 8.56515 14.2759 2.85512 -4.01318 7590.48 
305 1 5.70836 14.2748 2.85306 -4.0131 1399.93 
485 1 5.70574 11.4165 5.70653 -4.01168 5124.49 
487 1 8.56398 11.4181 5.70848 -4.01207 3099.19 
286 1 7.13555 12.846 4.28028 -4.01328 2973.05 
86 1 7.13808 12.8478 1.42751 -4.01312 4078.34 
266 1 7.13749 9.99134 4.28185 -4.01276 4854.27 
66 1 7.13873 9.99235 1.42787 -4.01308 6619.64 
287 1 8.56619 11.4203 2.85532 -4.01318 10268.9 
285 1 5.70937 11.4189 2.85384 -4.01305 5365.43 
87 1 8.56651 11.4207 0.000825567 -4.01308 1806.3 
507 1 8.56094 14.2735 5.7063 -4.01409 3852.19 
505 1 5.70328 14.2726 5.70424 -4.01188 5925.92 
85 1 5.71065 11.4198 0.000395842 -4.01309 4147.22 
107 1 8.56611 14.2761 0.000609226 -4.01303 8285.09 
290 1 12.8492 12.85 4.28453 -4.01287 7633.01 
90 1 12.8492 12.8496 1.42912 -4.01299 6315.16 
270 1 12.8492 9.99355 4.28399 -4.01242 16363.2 
70 1 12.8492 9.9937 1.42868 -4.01294 6005.85 
288 1 9.99368 12.8486 4.28324 -4.0135 3017.5 
88 1 9.99416 12.849 1.42869 -4.0131 4735.73 
268 1 9.99418 9.99294 4.28344 -4.01263 9054.55 
68 1 9.99437 9.99332 1.42848 -4.01298 36212.9 
289 1 11.4219 11.4215 2.85636 -4.01293 6288.17 
89 1 11.4218 11.4214 0.00107463 -4.01301 9755.12 
603 1 2.85439 0.00131851 8.56514 -4.01302 4197.48 
623 1 2.85489 2.85442 8.56516 -4.01301 13428.8 
402 1 1.42737 1.42806 7.1372 -4.01296 5193.48 
602 1 1.42723 1.42761 9.99322 -4.01295 6658.26 
422 1 1.42722 4.28147 7.13715 -4.01291 14189 
622 1 1.4268 4.28093 9.99294 -4.01289 9602.18 
404 1 4.2828 1.42801 7.13741 -4.01308 12295 
604 1 4.2826 1.42756 9.99335 -4.01309 11780.9 
424 1 4.28261 4.28147 7.13728 -4.01301 4454.93 
624 1 4.28194 4.28085 9.9929 -4.01303 10385.2 
823 1 2.85461 2.8539 11.4212 -4.01301 1788.75 
605 1 5.70999 0.000981969 8.56526 -4.01314 17084.9 
625 1 5.71065 2.85463 8.56556 -4.01309 1938.42 
607 1 8.56584 0.000336371 8.56575 -4.0131 14442.8 
627 1 8.56651 2.85506 8.56643 -4.01308 654.307 
406 1 7.13861 1.42789 7.13801 -4.0131 13182.4 
606 1 7.13836 1.42748 9.9937 -4.01308 8197.26 
426 1 7.13873 4.2821 7.13812 -4.01308 1922.05 
626 1 7.13808 4.28174 9.99352 -4.01312 7337.67 
427 1 8.5668 2.85522 5.71093 -4.01302 1865.31 
629 1 11.4218 2.8553 8.56716 -4.01301 731.163 
408 1 9.99418 1.42777 7.13883 -4.01304 3816.04 
608 1 9.99392 1.42743 9.99428 -4.01302 12501.9 
428 1 9.99437 4.28271 7.13909 -4.01298 2086.41 
628 1 9.99416 4.28292 9.99479 -4.0131 7081.11 
410 1 12.8492 1.42773 7.13918 -4.01302 5196.36 
610 1 12.8492 1.42741 9.99464 -4.01297 687.997 
430 1 12.8492 4.28291 7.13947 -4.01294 8096.04 
630 1 12.8492 4.28335 9.99539 -4.01299 1666.43 
409 1 11.4217 0.000638424 5.71072 -4.01304 1595.23 
429 1 11.4219 2.85532 5.71145 -4.01298 8965.24 
643 1 2.85372 5.70786 8.5646 -4.01282 5933.34 
663 1 2.85256 8.56276 8.56434 -4.01294 4943.88 
442 1 1.42655 7.13594 7.13707 -4.01295 10388.7 
642 1 1.42602 7.13541 9.9928 -4.013 4429.06 
444 1 4.28082 7.13513 7.13628 -4.01254 3766.74 
644 1 4.27929 7.13378 9.99168 -4.01256 10359 
863 1 2.85189 8.56199 11.4205 -4.01307 6582.31 
843 1 2.85303 5.70712 11.4206 -4.01276 1362.33 
865 1 5.70328 8.55847 11.4184 -4.01188 4712.18 
867 1 8.56094 8.56053 11.4192 -4.01409 16268.3 
645 1 5.70937 5.70807 8.56466 -4.01305 10805.3 
665 1 5.70574 8.56076 8.56226 -4.01168 10336.9 
647 1 8.56619 5.70955 8.56604 -4.01318 11477.3 
667 1 8.56398 8.56271 8.56384 -4.01207 8600.39 
446 1 7.13749 7.13608 7.13711 -4.01276 7427.6 
646 1 7.13555 7.13451 9.99182 -4.01328 6801.1 
845 1 5.70836 5.70729 11.4206 -4.0131 4268.78 
447 1 8.56672 5.71 5.71093 -4.01291 1181.22 
467 1 8.56622 8.56559 5.71136 -4.0137 6953.37 
649 1 11.4219 5.71059 8.56725 -4.01293 1369.29 
469 1 11.4219 8.56684 5.71261 -4.01343 9821.78 
669 1 11.4217 8.56538 8.56642 -4.01172 11590.4 
448 1 9.99418 7.13767 7.13871 -4.01263 7753.64 
648 1 9.99368 7.13747 9.99435 -4.0135 11796.5 
450 1 12.8492 7.13822 7.13932 -4.01242 4351.05 
650 1 12.8492 7.13876 9.99576 -4.01287 6217.26 
449 1 11.4219 5.71051 5.71159 -4.0128 1818.02 
703 1 2.85233 14.2754 8.56439 -4.01317 5140.52 
883 1 2.85233 11.4186 11.4211 -4.01317 9904.39 
684 1 4.27846 12.8471 9.9929 -4.0127 3246 
683 1 2.85232 11.4192 8.56494 -4.01295 8487.16 
462 1 1.42611 9.99153 7.1373 -4.013 2364.74 
662 1 1.42585 9.99125 9.99312 -4.01309 3335.9 
482 1 1.42585 12.8474 7.13702 -4.01309 8497.77 
682 1 1.42615 12.8477 9.99346 -4.013 3850.81 
464 1 4.27976 9.99094 7.13671 -4.01317 3993.15 
664 1 4.27788 9.98926 9.9914 -4.01302 5834.92 
484 1 4.27788 12.8456 7.13503 -4.01302 5632.26 
707 1 8.54398 14.2595 8.54731 -3.99994 15979.5 
705 1 5.70238 14.2728 8.561 -4.01349 5483.18 
885 1 5.70238 11.4152 11.4185 -4.01349 7390.17 
686 1 7.13027 12.8479 9.99369 -4.01374 14221.2 
486 1 7.12805 12.8404 7.12996 -4.00913 8187.65 
666 1 7.12805 9.98419 9.98618 -4.00913 17323.5 
466 1 7.13596 9.99186 7.13763 -4.01492 20132.6 
687 1 8.56317 11.4218 8.56755 -4.01867 -1784.46 
685 1 5.70517 11.4187 8.56442 -4.01346 3309.4 
887 1 8.54398 11.4015 11.4053 -3.99994 13051.6 
690 1 12.8492 12.8682 10.014 -4.02295 -20573.7 
490 1 12.8492 12.8479 7.13791 -4.00889 2284.33 
670 1 12.8492 9.99214 9.99367 -4.00889 879.207 
470 1 12.8492 9.99619 7.14196 -4.01386 15292.5 
709 1 11.4123 14.266 8.55531 -3.99021 5267.1 
691 1 14.2764 11.427 8.57277 -4.01749 -3888.86 
889 1 11.4123 11.4095 11.4118 -3.99021 5381.73 
688 1 9.99329 12.8587 10.0044 -4.02603 -10806.6 
488 1 9.98959 12.8437 7.13393 -4.00943 23144.1 
668 1 9.98959 9.98816 9.98945 -4.00943 5412.85 
468 1 9.99383 9.99483 7.1406 -4.01478 1257.75 
689 1 11.4221 11.427 8.57277 -4.01749 -2919.08 
489 1 11.4217 11.4206 5.71115 -4.01172 28601.8 
803 1 2.85445 0.00080303 11.4215 -4.01301 5769.9 
1003 1 2.85461 0.000270298 14.2777 -4.01301 3746.9 
1023 1 2.85445 2.85337 14.2774 -4.01301 5594.07 
802 1 1.42719 1.42709 12.8494 -4.01295 10591.8 
1002 1 1.42723 1.42657 15.7056 -4.01295 4525.46 
822 1 1.42652 4.28035 12.8491 -4.01286 13272.5 
1022 1 1.42632 4.27979 15.7056 -4.01286 5369.84 
804 1 4.28255 1.42709 12.8494 -4.01309 896.396 
1004 1 4.2826 1.42662 15.7055 -4.01309 12597.5 
824 1 4.28145 4.28026 12.8491 -4.01304 6156.29 
1024 1 4.28109 4.2796 15.7057 -4.01305 4853.22 
805 1 5.71007 0.000424301 11.4215 -4.01311 8391.76 
1025 1 5.71007 2.85375 14.2774 -4.01311 8610.61 
1027 1 8.56581 2.85446 14.2774 -4.01304 4972.56 
806 1 7.13828 1.42709 12.8494 -4.01307 10380 
1006 1 7.13836 1.4267 15.7051 -4.01308 6003.89 
826 1 7.13746 4.28135 12.8494 -4.01314 1594.97 
1026 1 7.13698 4.28065 15.7058 -4.0132 3016.52 
825 1 5.7103 2.85421 11.4213 -4.0131 2984.62 
827 1 8.56611 2.85484 11.4219 -4.01303 2440.66 
829 1 11.4216 2.85534 11.4225 -4.01298 4615.56 
1029 1 11.4214 2.85498 14.2773 -4.01296 -88.725 
808 1 9.9938 1.42709 12.8494 -4.01297 1956.99 
1008 1 9.99392 1.42674 15.7046 -4.01302 8173.01 
828 1 9.99342 4.28281 12.8501 -4.01299 15899.9 
1028 1 9.99299 4.28202 15.7056 -4.01309 21259.1 
810 1 12.8492 1.42709 12.8494 -4.01295 2216.44 
1010 1 12.8492 1.42676 15.7042 -4.01297 11872.1 
830 1 12.8492 4.28358 12.8508 -4.01297 22211.3 
1030 1 12.8492 4.28255 15.705 -4.01292 7546.72 
1043 1 2.85251 5.70639 14.2773 -4.01273 3979.38 
1063 1 2.85131 8.56113 14.2776 -4.01307 8581 
842 1 1.42565 7.13483 12.8491 -4.013 8011.57 
1042 1 1.42531 7.13418 15.7059 -4.01302 12425.3 
844 1 4.27823 7.13268 12.8485 -4.01244 6124.22 
1044 1 4.27729 7.13151 15.7063 -4.01244 7273.71 
1045 1 5.70754 5.70646 14.2775 -4.01313 5564.77 
1065 1 5.70141 8.55654 14.2774 -4.01166 8528.57 
1047 1 8.56401 5.70872 14.2782 -4.01326 7278.21 
1067 1 8.55775 8.55879 14.2796 -4.01442 4461.1 
846 1 7.13396 7.13346 12.8488 -4.01337 6102.94 
1046 1 7.13243 7.13185 15.7077 -4.01364 4688.71 
847 1 8.56515 5.70935 11.4217 -4.01318 1512.13 
1049 1 11.4204 5.71095 14.2787 -4.01296 18397.5 
869 1 11.4212 8.56632 11.4243 -4.01414 24168.1 
1069 1 11.4162 8.56597 14.2826 -4.01307 2088.41 
848 1 9.99163 7.13745 12.8508 -4.01321 10375.6 
1048 1 9.9899 7.13566 15.7087 -4.01373 6196.19 
850 1 12.8492 7.14046 12.8534 -4.01373 79.737 
1050 1 12.8492 7.13788 15.706 -4.01227 3005.78 
849 1 11.4217 5.71147 11.4236 -4.01312 5097.54 
903 1 2.85324 14.2757 11.4215 -4.01289 12870.7 
1103 1 2.85368 14.2748 14.2783 -4.01333 264.603 
1084 1 4.27816 12.8444 15.7087 -4.01351 4958.21 
884 1 4.27917 12.8458 12.8498 -4.01319 8532.58 
1064 1 4.2759 9.9865 15.7077 -4.01351 4279.4 
864 1 4.27717 9.98808 12.8488 -4.01333 10391.7 
1082 1 1.42631 12.8467 15.7063 -4.01315 1384.18 
882 1 1.42653 12.8473 12.8498 -4.01306 6398.6 
1083 1 2.85228 11.4178 14.2782 -4.01324 11175.7 
862 1 1.42578 9.99081 12.8495 -4.01311 1935.54 
1062 1 1.42548 9.99016 15.7063 -4.01319 5666.33 
1107 1 8.53134 14.2656 14.2875 -4.0303 4978.4 
1105 1 5.70528 14.2724 14.2806 -4.01703 1254.67 
886 1 7.12713 12.8393 12.8468 -4.01363 6606.37 
1066 1 7.11917 9.97538 15.7116 -4.01154 7639.13 
1086 1 7.12246 12.834 15.7191 -4.02033 -2411.79 
866 1 7.12379 9.97996 12.8452 -4.00998 13066.4 
1087 1 8.53284 11.3926 14.278 -4.01074 24119.2 
1085 1 5.70132 11.4132 14.2791 -4.01469 13797.3 
905 1 5.70498 14.2757 11.4215 -4.01243 11888.4 
1090 1 12.8492 12.8964 15.6567 -4.10787 -64989.2 
890 1 12.8492 12.7434 12.8578 -3.98679 26007.7 
1070 1 12.8492 9.99474 15.7048 -4.00508 -3390.83 
870 1 12.8492 9.99451 12.8606 -4.02704 3007.13 
1109 1 11.0239 14.1203 14.4328 -3.63249 193504 
1088 1 9.884 12.7469 15.8062 -3.87518 45989 
888 1 9.94714 12.7971 12.8141 -3.97202 15934.5 
1068 1 9.97601 9.98042 15.7218 -4.01811 2184.31 
868 1 9.98421 9.98594 12.8497 -4.01721 -1535.14 
1089 1 11.3882 11.4122 14.3019 -4.02335 -2452.18 
1223 1 2.85439 2.85286 17.1337 -4.01302 15964.5 
1423 1 2.85456 2.8525 19.9898 -4.01301 2552.59 
1202 1 1.42737 1.42612 18.5616 -4.01296 11094.9 
1402 1 1.42766 1.4259 21.4172 -4.01295 14843.7 
1222 1 1.42627 4.27932 18.5621 -4.01288 5228.09 
1422 1 1.42651 4.27924 21.4182 -4.01287 6497.7 
1204 1 4.2828 1.42617 18.5614 -4.01308 12945.2 
1404 1 4.28324 1.42591 21.4169 -4.01304 14657.6 
1224 1 4.28096 4.27898 18.5625 -4.01308 8176.86 
1424 1 4.2815 4.27889 21.4187 -4.01294 12744.2 
1225 1 5.70999 2.85319 17.1336 -4.01314 6382.31 
1425 1 5.71027 2.85273 19.9896 -4.01311 11157 
1227 1 8.56584 2.85384 17.1331 -4.0131 27785.9 
1427 1 8.56634 2.85327 19.9887 -4.01307 1275.93 
1206 1 7.13861 1.42628 18.5608 -4.0131 5843.35 
1406 1 7.13906 1.42605 21.4163 -4.01304 679.061 
1226 1 7.13701 4.27973 18.5624 -4.01323 7825.06 
1426 1 7.13812 4.27964 21.4179 -4.0131 1945.02 
1429 1 11.4217 2.85354 19.9881 -4.01304 3592.22 
1208 1 9.99418 1.42641 18.56 -4.01304 4010.43 
1408 1 9.99437 1.42614 21.4157 -4.013 5002.3 
1228 1 9.99364 4.28084 18.5612 -4.01309 2205.55 
1428 1 9.99403 4.28018 21.4171 -4.01297 8323.06 
1210 1 12.8492 1.42645 18.5597 -4.01302 6431.68 
1410 1 12.8492 1.42616 21.4155 -4.01299 3551.2 
1230 1 12.8492 4.28116 18.5606 -4.01306 464.662 
1430 1 12.8492 4.28033 21.4169 -4.01295 4758.64 
1229 1 11.4215 2.85426 17.1323 -4.01301 6083.9 
1243 1 2.85213 5.70567 17.1343 -4.01276 23770 
1443 1 2.85214 5.70529 19.9914 -4.01278 11372.2 
1263 1 2.85058 8.56018 17.1354 -4.01319 4090.79 
1463 1 2.85026 8.5599 19.9932 -4.01306 15484.1 
1242 1 1.42505 7.13364 18.5629 -4.01307 5834.63 
1442 1 1.42526 7.13371 21.4194 -4.01296 7394.78 
1244 1 4.27665 7.1305 18.565 -4.01257 5101.46 
1444 1 4.27771 7.13105 21.422 -4.01165 15516.4 
1245 1 5.70688 5.70537 17.1352 -4.01324 6535.6 
1445 1 5.70717 5.70471 19.9926 -4.013 2119.09 
1265 1 5.69942 8.55423 17.1387 -4.01217 12903.1 
1465 1 5.69962 8.55375 19.9993 -4.00927 21004.1 
1247 1 8.56355 5.70719 17.1355 -4.01342 8419.2 
1447 1 8.56529 5.70645 19.991 -4.01324 15426.1 
1267 1 8.55544 8.55466 17.1437 -4.01455 4242.47 
1467 1 8.56339 8.55767 19.9954 -4.0142 3624.16 
1246 1 7.13195 7.12991 18.5674 -4.01335 8495.87 
1446 1 7.13615 7.13222 21.4208 -4.0133 4742.57 
1249 1 11.4211 5.70899 17.1335 -4.01299 603.95 
1449 1 11.4215 5.70721 19.99 -4.01299 2646.69 
1269 1 11.4215 8.56231 17.1357 -4.01335 7319.72 
1469 1 11.4214 8.55947 19.9936 -4.01126 9702.42 
1248 1 9.99298 7.13367 18.5639 -4.01344 2051.64 
1448 1 9.99351 7.13348 21.4196 -4.01239 3031.34 
1250 1 12.8492 7.13446 18.5628 -4.01309 2784.66 
1450 1 12.8492 7.13386 21.4192 -4.01236 27839.3 
1303 1 2.85228 14.2748 17.1352 -4.01324 1707.84 
1283 1 2.85123 11.417 17.1361 -4.01347 2843.28 
1483 1 2.85058 11.4176 19.9929 -4.01319 12962.7 
1262 1 1.42493 9.98969 18.5634 -4.01326 12199.5 
1462 1 1.42505 9.99019 21.4194 -4.01307 3729.97 
1282 1 1.42548 12.8468 18.5629 -4.01319 13526.4 
1482 1 1.42531 12.8472 21.4189 -4.01302 12517 
1264 1 4.27431 9.98536 18.5677 -4.0136 9803.35 
1464 1 4.27665 9.9881 21.4226 -4.01257 36520.1 
1284 1 4.2759 12.8454 18.5666 -4.01351 2889.43 
1484 1 4.27729 12.8467 21.4216 -4.01244 24914.7 
1503 1 2.85131 14.2755 19.9919 -4.01307 5173.93 
1286 1 7.11917 12.8415 18.5777 -4.01154 8769.47 
1307 1 8.53284 14.2751 17.1604 -4.01074 20183.2 
1505 1 5.70141 14.2757 19.9965 -4.01166 8907.6 
1305 1 5.70132 14.274 17.1399 -4.01469 17213.2 
1486 1 7.13243 12.8453 21.4212 -4.01364 8070.62 
1507 1 8.55775 14.2735 19.9943 -4.01442 11400.1 
1285 1 5.69763 11.41 17.143 -4.01547 26170.2 
1485 1 5.69942 11.4143 19.9988 -4.01217 11983.7 
1287 1 8.5175 11.3749 17.1781 -3.97492 22401.6 
1487 1 8.55544 11.4094 19.9984 -4.01455 5406.05 
1266 1 7.11565 9.97096 18.5821 -4.00182 18844.9 
1466 1 7.13195 9.98564 21.4232 -4.01335 2470.9 
1490 1 12.8492 12.847 21.4152 -4.01227 5220.29 
1290 1 12.8492 12.8483 18.5583 -4.00508 9329.98 
1470 1 12.8492 9.99026 21.4186 -4.01309 1339.96 
1270 1 12.8492 9.98496 18.5681 -4.00686 8647.8 
1291 1 14.2659 11.4144 17.1386 -4.01897 -2615.88 
1709 1 11.4204 14.2743 22.8421 -4.01296 28180.3 
1509 1 11.4162 14.2705 19.9871 -4.01307 2172.29 
1488 1 9.9899 12.8444 21.4174 -4.01373 12915.6 
1288 1 9.97601 12.8313 18.5726 -4.01811 16499 
1468 1 9.99298 9.98914 21.4194 -4.01344 2317.69 
1268 1 9.99367 9.98342 18.5696 -4.01694 14192.1 
1489 1 11.4215 11.4173 19.9908 -4.01335 7950.33 
1309 1 11.3882 14.2511 17.1409 -4.02335 10757.4 
1289 1 11.4326 11.4144 17.1386 -4.01897 -2045.34 
1821 1 0.000304479 2.85348 25.6996 -4.01281 9809.53 
1623 1 2.85511 2.85264 22.8453 -4.01293 8188.58 
1823 1 2.85592 2.85355 25.6995 -4.01293 2792.32 
1602 1 1.42807 1.42618 24.272 -4.01291 7232.46 
1802 1 1.42833 1.42709 27.126 -4.01292 3384.08 
1622 1 1.42724 4.2799 24.2732 -4.01275 9789.9 
1822 1 1.42807 4.28109 27.1269 -4.01291 9820.62 
1604 1 4.28383 1.42622 24.2717 -4.01299 7071.51 
1804 1 4.28407 1.42709 27.126 -4.01295 5581.12 
1624 1 4.28296 4.28005 24.273 -4.01296 3632.71 
1824 1 4.28383 4.28137 27.1268 -4.01299 10391.4 
1 1 0.000304503 0.000697616 28.5524 -4.01281 15340.4 
3 1 2.85592 0.00062036 28.5524 -4.01293 15762.8 
1625 1 5.71107 2.85293 22.8448 -4.01302 7109.25 
1825 1 5.71164 2.85376 25.6993 -4.01292 17236 
1627 1 8.56671 2.85321 22.8442 -4.01296 7709.76 
1827 1 8.56696 2.85393 25.6991 -4.01289 4336.28 
1606 1 7.13938 1.42627 24.2713 -4.01296 4017.8 
1806 1 7.13951 1.42709 27.126 -4.01293 12349.1 
1626 1 7.1389 4.28048 24.2726 -4.01288 19247.3 
1826 1 7.13938 4.28173 27.1268 -4.01296 5308.96 
5 1 5.71164 0.000417251 28.5526 -4.01292 14513 
7 1 8.56696 0.000242095 28.5528 -4.01289 8312.15 
9 1 11.4219 0.000154556 28.5529 -4.01287 1625.84 
1629 1 11.4218 2.85335 22.8439 -4.01293 13675 
1829 1 11.4219 2.85402 25.699 -4.01287 3520.52 
1608 1 9.99447 1.42629 24.2711 -4.01294 12994.5 
1808 1 9.99451 1.42709 27.126 -4.01291 5599.19 
1628 1 9.99428 4.28079 24.2723 -4.01283 15169.6 
1828 1 9.99447 4.282 27.1268 -4.01294 6352.16 
1610 1 12.8492 1.4263 24.271 -4.01293 2872.5 
1810 1 12.8492 1.42709 27.126 -4.0129 3265.05 
1630 1 12.8492 4.28089 24.2722 -4.01281 6157.36 
1830 1 12.8492 4.28209 27.1268 -4.01293 2045.67 
1643 1 2.85318 5.70598 22.8471 -4.01247 2665.85 
1843 1 2.85511 5.70781 25.7004 -4.01293 12346.2 
1663 1 2.85214 8.56165 22.8478 -4.01278 9704.75 
1863 1 2.85456 8.56323 25.7006 -4.01301 14814.6 
1642 1 1.42651 7.13485 24.2738 -4.01287 3769.17 
1842 1 1.42766 7.13586 27.1272 -4.01295 10689.6 
1644 1 4.2815 7.13439 24.2742 -4.01294 7542.81 
1844 1 4.28324 7.13612 27.1272 -4.01304 19364.4 
1645 1 5.7096 5.70633 22.8467 -4.01303 8843.16 
1845 1 5.71107 5.70828 25.7001 -4.01302 6295.98 
1665 1 5.70717 8.56047 22.8484 -4.013 17523.7 
1865 1 5.71027 8.56345 25.7003 -4.01311 3051.61 
1647 1 8.5661 5.7071 22.846 -4.01276 7272.45 
1847 1 8.56671 5.70883 25.6999 -4.01296 4231.88 
1667 1 8.56529 8.56206 22.8466 -4.01324 5859.96 
1867 1 8.56634 8.56433 25.6998 -4.01307 5470 
1646 1 7.13812 7.13519 24.2734 -4.0131 3736.77 
1846 1 7.13906 7.1368 27.127 -4.01304 6576.8 
1649 1 11.4217 5.7075 22.8456 -4.0127 7071.26 
1849 1 11.4218 5.70913 25.6997 -4.01293 3431.08 
1669 1 11.4215 8.56305 22.8459 -4.01299 9168.52 
1869 1 11.4217 8.56495 25.6995 -4.01304 3105.72 
1648 1 9.99403 7.13594 24.2729 -4.01297 16412.1 
1848 1 9.99437 7.13737 27.1269 -4.013 3652.84 
1650 1 12.8492 7.13621 24.2727 -4.01295 25632.7 
1850 1 12.8492 7.13759 27.1269 -4.01299 12119.9 
1903 1 2.85445 14.2757 25.6997 -4.01301 2388.98 
1703 1 2.85252 14.2758 22.8467 -4.01273 5623.23 
1683 1 2.85213 11.4187 22.8474 -4.01276 15942.8 
1883 1 2.85439 11.4194 25.7002 -4.01302 4600.54 
1662 1 1.42627 9.99098 24.2737 -4.01288 14058.1 
1862 1 1.42737 9.99143 27.1269 -4.01296 19044.6 
1682 1 1.42632 12.8475 24.2733 -4.01286 6092.23 
1882 1 1.42723 12.8475 27.1265 -4.01295 5035.69 
1664 1 4.28096 9.99059 24.2741 -4.01308 7526.59 
1864 1 4.2828 9.99164 27.1269 -4.01308 10672.3 
1684 1 4.28109 12.8474 24.2735 -4.01305 1233.43 
1884 1 4.2826 12.8476 27.1264 -4.01309 11999 
103 1 2.85461 14.2754 28.5528 -4.01301 8745.52 
1907 1 8.56581 14.2757 25.6986 -4.01304 6155.9 
1905 1 5.71008 14.2757 25.6993 -4.01311 3594.81 
1705 1 5.70754 14.2756 22.8466 -4.01313 877.914 
1685 1 5.70688 11.4179 22.8477 -4.01324 3216.64 
1885 1 5.70999 11.4195 25.6999 -4.01314 1413.95 
1687 1 8.56355 11.4176 22.8459 -4.01342 1013.95 
1887 1 8.56584 11.42 25.6992 -4.0131 4524.31 
1666 1 7.13701 9.99064 24.2733 -4.01323 5336.41 
1866 1 7.13861 9.99224 27.1268 -4.0131 3385.71 
1686 1 7.13698 12.8472 24.2724 -4.0132 23196.5 
1886 1 7.13836 12.8479 27.1264 -4.01308 14136.5 
105 1 5.7103 14.2756 28.5531 -4.0131 7200.61 
1707 1 8.56401 14.2749 22.8443 -4.01326 15500.4 
1890 1 12.8492 12.8489 27.1263 -4.01297 355.135 
1909 1 11.4214 14.2758 25.6981 -4.01296 11844.9 
1690 1 12.8492 12.848 24.2705 -4.01292 489.624 
1889 1 11.4215 11.4207 25.6988 -4.01301 4059.43 
1870 1 12.8492 9.99341 27.1266 -4.01302 1299.96 
1670 1 12.8492 9.99243 24.2719 -4.01306 10125.9 
1888 1 9.99392 12.8485 27.1263 -4.01302 27601.6 
1688 1 9.99299 12.8474 24.271 -4.01309 12104.6 
1868 1 9.99418 9.99306 27.1267 -4.01304 2794.15 
1668 1 9.99364 9.99189 24.2722 -4.01309 7008.25 
1689 1 11.4211 11.4195 22.8441 -4.01299 8922.03 
323 1 2.85252 17.1315 2.85216 -4.01273 10159.7 
102 1 1.42652 15.7034 1.42612 -4.01286 8690.3 
302 1 1.42565 15.7033 4.2806 -4.013 12986.9 
122 1 1.42632 18.5598 1.42556 -4.01286 2305.09 
322 1 1.42531 18.5601 4.27995 -4.01302 21722.3 
104 1 4.28145 15.7033 1.42603 -4.01304 7593.12 
304 1 4.27823 15.7027 4.27845 -4.01244 3230.11 
124 1 4.28109 18.5599 1.42537 -4.01305 11720.1 
324 1 4.27729 18.5606 4.27728 -4.01244 11955 
523 1 2.85131 17.1318 5.7069 -4.01307 3682 
325 1 5.70754 17.1317 2.85223 -4.01313 2254.98 
327 1 8.56401 17.1324 2.85449 -4.01326 13359.9 
106 1 7.13746 15.7036 1.42712 -4.01314 617.485 
306 1 7.13396 15.703 4.27923 -4.01337 15966.1 
126 1 7.13698 18.5601 1.42642 -4.0132 4427.18 
326 1 7.13243 18.562 4.27762 -4.01364 6289.09 
525 1 5.70141 17.1316 5.70231 -4.01166 4095.16 
527 1 8.55775 17.1338 5.70456 -4.01442 14507.6 
127 1 8.56581 17.1316 0.00023166 -4.01304 3179.17 
309 1 11.4217 14.2778 2.85724 -4.01312 12465.1 
129 1 11.4214 17.1315 0.000745525 -4.01296 4313.9 
329 1 11.4204 17.133 2.85672 -4.01296 7834.22 
108 1 9.99342 15.7043 1.42858 -4.01299 4355.44 
308 1 9.99163 15.705 4.28322 -4.01321 7328.65 
128 1 9.99299 18.5599 1.42779 -4.01309 4865.45 
328 1 9.9899 18.5629 4.28143 -4.01373 3448.35 
110 1 12.8492 15.705 1.42935 -4.01297 1897.21 
310 1 12.8492 15.7077 4.28623 -4.01373 4596.55 
130 1 12.8492 18.5593 1.42832 -4.01292 17318.3 
330 1 12.8492 18.5603 4.28365 -4.01227 6945.21 
109 1 11.4216 14.2767 0.00110977 -4.01298 5848.56 
343 1 2.85213 19.9886 2.85144 -4.01276 4797.76 
363 1 2.85214 22.8456 2.85106 -4.01278 3505.25 
142 1 1.42627 21.4163 1.42509 -4.01288 1961.15 
342 1 1.42505 21.4171 4.27941 -4.01307 11662.6 
144 1 4.28096 21.4167 1.42475 -4.01308 3688.59 
344 1 4.27665 21.4192 4.27627 -4.01257 5871.76 
543 1 2.85058 19.9896 5.70595 -4.01319 6507.28 
563 1 2.85026 22.8474 5.70567 -4.01306 15864.7 
345 1 5.70688 19.9894 2.85114 -4.01324 8266.16 
365 1 5.70717 22.8468 2.85048 -4.013 9018.8 
347 1 8.56355 19.9897 2.85296 -4.01342 17199.9 
367 1 8.56529 22.8452 2.85222 -4.01324 5830.77 
146 1 7.13701 21.4167 1.4255 -4.01323 8443.43 
346 1 7.13195 21.4217 4.27568 -4.01335 3436.76 
545 1 5.69942 19.993 5.7 -4.01217 20712 
565 1 5.69962 22.8535 5.69952 -4.00927 12646.9 
547 1 8.55544 19.9979 5.70043 -4.01455 8963.03 
567 1 8.56339 22.8496 5.70344 -4.0142 1479.2 
349 1 11.4211 19.9878 2.85476 -4.01299 8401.57 
369 1 11.4215 22.8442 2.85298 -4.01299 1556.04 
148 1 9.99364 21.4154 1.42661 -4.01309 877.903 
348 1 9.99298 21.4182 4.27944 -4.01344 1548.85 
150 1 12.8492 21.4149 1.42693 -4.01306 1609.12 
350 1 12.8492 21.417 4.28023 -4.01309 10613.6 
549 1 11.4215 19.99 5.70808 -4.01335 8958.92 
569 1 11.4214 22.8478 5.70524 -4.01126 12625.1 
149 1 11.4215 19.9865 3.34305e-05 -4.01301 5495.88 
583 1 2.85214 25.702 5.70742 -4.01278 2476.97 
384 1 4.2815 27.1284 4.28016 -4.01294 2183.96 
184 1 4.28296 27.1272 1.42582 -4.01296 6946.54 
364 1 4.27771 24.2762 4.27682 -4.01165 3614.58 
164 1 4.2815 24.2729 1.42466 -4.01294 9686.97 
382 1 1.42651 27.1281 4.28062 -4.01287 2554.36 
182 1 1.42724 27.1274 1.42567 -4.01275 16716.9 
362 1 1.42526 24.2736 4.27948 -4.01296 12358.6 
162 1 1.42651 24.2724 1.42501 -4.01287 4553.85 
383 1 2.85318 25.7013 2.85175 -4.01247 11544.4 
385 1 5.7096 25.701 2.8521 -4.01303 2494.6 
386 1 7.13812 27.1277 4.28096 -4.0131 1559.55 
186 1 7.1389 27.1268 1.42625 -4.01288 13435.2 
366 1 7.13615 24.2751 4.27799 -4.0133 3329.55 
166 1 7.13812 24.2721 1.42541 -4.0131 12046.8 
387 1 8.5661 25.7002 2.85287 -4.01276 7812.64 
587 1 8.56529 25.7008 5.70783 -4.01324 3594.31 
585 1 5.70717 25.7026 5.70624 -4.013 7833.31 
390 1 12.8492 27.127 4.28198 -4.01295 1961.37 
190 1 12.8492 27.1264 1.42666 -4.01281 17258.7 
370 1 12.8492 24.2734 4.27963 -4.01236 24565.6 
170 1 12.8492 24.2711 1.4261 -4.01295 24565.5 
589 1 11.4215 25.7001 5.70882 -4.01299 7456.53 
388 1 9.99403 27.1271 4.28171 -4.01297 10860.6 
188 1 9.99428 27.1265 1.42656 -4.01283 11803.9 
368 1 9.99351 24.2738 4.27925 -4.01239 2101.57 
168 1 9.99403 24.2714 1.42595 -4.01297 2876.05 
389 1 11.4217 25.6998 2.85327 -4.0127 5513.59 
723 1 2.85228 17.1325 8.56362 -4.01324 7243.53 
502 1 1.42578 15.7037 7.13658 -4.01311 2542.3 
702 1 1.42653 15.704 9.99306 -4.01306 3664.3 
522 1 1.42548 18.5605 7.13593 -4.01319 1970.95 
722 1 1.42631 18.5606 9.99251 -4.01315 8257.55 
504 1 4.27717 15.703 7.13385 -4.01333 7181.99 
704 1 4.27917 15.704 9.99158 -4.01319 10408.8 
524 1 4.2759 18.5619 7.13227 -4.01351 3557.93 
724 1 4.27816 18.5629 9.99012 -4.01351 1204.54 
923 1 2.85368 17.1325 11.4206 -4.01333 14731.3 
725 1 5.70132 17.1333 8.55895 -4.01469 6983.96 
727 1 8.53284 17.1322 8.5384 -4.01074 19301.7 
506 1 7.12379 15.6994 7.12573 -4.00998 4309.69 
706 1 7.12713 15.701 9.98506 -4.01363 3683.53 
526 1 7.11917 18.5658 7.12115 -4.01154 32083.2 
726 1 7.12246 18.5733 9.97976 -4.02033 377.173 
925 1 5.70528 17.1349 11.4182 -4.01703 9134.67 
927 1 8.53134 17.1417 11.4113 -4.0303 1991.57 
509 1 11.4212 14.2785 5.71209 -4.01414 1637.65 
529 1 11.4162 17.1368 5.71174 -4.01307 2902.18 
729 1 11.3882 17.1562 8.55797 -4.02335 335.942 
508 1 9.98421 15.7039 7.13171 -4.01721 40.7128 
708 1 9.94714 15.6684 9.94285 -3.97202 21711.6 
528 1 9.97601 18.576 7.12619 -4.01811 2251.35 
728 1 9.884 18.6604 9.89267 -3.87518 59195.5 
510 1 12.8492 15.7148 7.14028 -4.02704 9936.52 
710 1 12.8492 15.712 9.88918 -3.98679 19562.3 
530 1 12.8492 18.559 7.14051 -4.00508 259.767 
730 1 12.8492 18.5109 10.0422 -4.10787 -62212.2 
929 1 11.0239 17.287 11.2661 -3.63249 192471 
743 1 2.85123 19.9903 8.56276 -4.01347 1112.41 
763 1 2.85058 22.8471 8.56342 -4.01319 4906.38 
542 1 1.42493 21.4176 7.13546 -4.01326 4176.49 
742 1 1.42548 21.4171 9.99255 -4.01319 2977.54 
544 1 4.27431 21.4219 7.13113 -4.0136 8315.36 
744 1 4.2759 21.4208 9.99115 -4.01351 10691.3 
943 1 2.85228 19.9895 11.4206 -4.01324 1795.53 
745 1 5.69763 19.9972 8.55582 -4.01547 9308.8 
765 1 5.69942 22.8531 8.56011 -4.01217 10141.3 
747 1 8.5175 20.0324 8.52069 -3.97492 21840.1 
767 1 8.55544 22.8526 8.55514 -4.01455 6191.56 
546 1 7.11565 21.4363 7.11673 -4.00182 12808.8 
746 1 7.11917 21.4319 9.98726 -4.01154 6460.1 
967 1 8.55775 22.8485 11.4192 -4.01442 4299.85 
945 1 5.70132 19.9941 11.4197 -4.01469 19757.7 
947 1 8.53284 20.0147 11.4209 -4.01074 12548.5 
751 1 14.2659 19.9929 8.5602 -4.01897 3348.74 
969 1 11.4162 22.8413 11.4162 -4.01307 1365.38 
949 1 11.3882 19.9951 11.3969 -4.02335 -6202.61 
749 1 11.4326 19.9929 8.5602 -4.01897 1999.39 
769 1 11.4215 22.845 8.56311 -4.01335 3807.5 
548 1 9.99367 21.4239 7.12919 -4.01694 5008.87 
748 1 9.97601 21.4269 9.97704 -4.01811 1218.62 
550 1 12.8492 21.4223 7.13073 -4.00686 8956.6 
750 1 12.8492 21.4126 9.99404 -4.00508 719.687 
784 1 4.28109 27.1277 9.99317 -4.01305 3682.94 
584 1 4.28096 27.1283 7.13636 -4.01308 9079.52 
764 1 4.27729 24.2758 9.99249 -4.01244 8674.26 
564 1 4.27665 24.2768 7.13387 -4.01257 6952.17 